SPECGRID
40 40 1 1 F /

GRIDUNIT
 'METRES' 'MAP' /

DX
1600*10 
/

DY
1600*10 
/

DZ
1600*1 
/

TOPS
1600*1000
/

