SPECGRID
20 20 1 1 F /

GRIDUNIT
 'METRES' 'MAP' /

DX
400*10 
/

DY
400*10 
/

DZ
400*1 
/

TOPS
400*1000
/

