SPECGRID
10 10 1 1 F /

GRIDUNIT
 'METRES' 'MAP' /

DX
100*10 
/

DY
100*10 
/

DZ
100*1 
/

TOPS
100*1000
/

