SPECGRID
5 5 1 1 F /

GRIDUNIT
 'METRES' 'MAP' /

DX
25*10 
/

DY
25*10 
/

DZ
25*1 
/

TOPS
25*1000
/

