SPECGRID
 5 5 1 1 F /

GRIDUNIT
 'METRES' 'MAP' /

DX
25*10 
/

DY
25*10 
/

DZ
25*1 
/

TOPS
1000.486 1000.775 1001.089 1001.419 1001.75 1002.065 1002.356 
1002.618 1002.835 1002.987 1003.052 1003.014 1002.866 1002.612 
1002.262 1001.835 1001.348 1000.824 1000.295 999.7975 999.368 
999.0352 998.8125 998.7015 998.6904 
/

