SPECGRID
100 100 1 1 F /

GRIDUNIT
 'METRES' 'MAP' /

DX
10000*10 
/

DY
10000*10 
/

DZ
10000*1 
/

TOPS
1000.486 1000.775 1001.089 1001.419 1001.75 1002.065 1002.356 
1002.618 1002.835 1002.987 1003.052 1003.014 1002.866 1002.612 
1002.262 1001.835 1001.348 1000.824 1000.295 999.7975 999.368 
999.0352 998.8125 998.7015 998.6904 998.7521 998.8519 998.9611 
999.0677 999.1705 999.2682 999.3568 999.4335 999.5012 999.5607 
999.6072 999.639 999.6655 999.6994 999.7494 999.8121 999.8783 
999.9389 999.9881 1000.024 1000.048 1000.06 1000.06 1000.049 
1000.036 1000.03 1000.032 1000.033 1000.016 999.9691 999.8918 
999.7999 999.7175 999.6664 999.6544 999.681 999.7493 999.8681 
1000.043 1000.268 1000.532 1000.825 1001.128 1001.419 1001.668 
1001.85 1001.95 1001.965 1001.9 1001.772 1001.598 1001.389 
1001.147 1000.866 1000.549 1000.216 999.8903 999.5956 999.3456 
999.1481 999.0105 998.9396 998.9323 998.9742 999.0419 999.1177 
999.1968 999.2822 999.3735 999.4683 999.5696 999.6879 999.8339 
1000.014 1000.231 1000.836 1001.116 1001.42 1001.74 1002.065 
1002.381 1002.682 1002.962 1003.206 1003.385 1003.477 1003.466 
1003.341 1003.098 1002.743 1002.294 1001.779 1001.227 1000.675 
1000.166 999.736 999.4054 999.1816 999.063 999.0372 999.0788 
999.155 999.2385 999.317 999.389 999.4553 999.5179 999.5814 
999.652 999.728 999.7988 999.8578 999.9109 999.9671 1000.033 
1000.106 1000.179 1000.248 1000.305 1000.346 1000.367 1000.364 
1000.335 1000.282 1000.219 1000.158 1000.101 1000.042 999.9716 
999.8813 999.7764 999.673 999.592 999.5504 999.5524 999.5948 
999.6782 999.8108 1000.001 1000.247 1000.537 1000.854 1001.178 
1001.48 1001.733 1001.912 1002.002 1002 1001.907 1001.74 
1001.519 1001.258 1000.963 1000.634 1000.279 999.918 999.5764 
999.2796 999.0438 998.8767 998.7823 998.7621 998.8068 998.8962 
999.008 999.1296 999.2613 999.4058 999.5594 999.7139 999.8655 
1000.02 1000.187 1000.374 1000.588 1001.151 1001.429 1001.731 
1002.048 1002.373 1002.697 1003.011 1003.307 1003.565 1003.756 
1003.858 1003.858 1003.743 1003.505 1003.147 1002.689 1002.162 
1001.601 1001.048 1000.545 1000.125 999.8032 999.5813 999.4539 
999.4077 999.4201 999.4637 999.5156 999.5645 999.6081 999.6498 
999.6956 999.7551 999.8343 999.9279 1000.023 1000.11 1000.192 
1000.271 1000.349 1000.426 1000.5 1000.569 1000.626 1000.666 
1000.679 1000.658 1000.596 1000.498 1000.381 1000.26 1000.139 
1000.018 999.8934 999.7642 999.6382 999.5305 999.4576 999.4293 
999.4453 999.4999 999.5907 999.7267 999.9208 1000.175 1000.48 
1000.815 1001.153 1001.465 1001.722 1001.898 1001.976 1001.953 
1001.834 1001.637 1001.382 1001.087 1000.758 1000.401 1000.026 
999.6501 999.302 999.0079 998.7874 998.6511 998.5999 998.6295 
998.7239 998.8564 999.005 999.1628 999.3355 999.5268 999.7316 
999.9373 1000.133 1000.317 1000.497 1000.689 1000.904 1001.442 
1001.724 1002.027 1002.344 1002.671 1003.002 1003.327 1003.629 
1003.887 1004.073 1004.169 1004.163 1004.045 1003.806 1003.449 
1002.995 1002.475 1001.926 1001.39 1000.907 1000.507 1000.201 
999.9847 999.8494 999.7814 999.7614 999.768 999.7843 999.8021 
999.8211 999.847 999.8874 999.9512 1000.043 1000.156 1000.278 
1000.398 1000.511 1000.614 1000.705 1000.783 1000.851 1000.912 
1000.962 1000.991 1000.99 1000.945 1000.848 1000.705 1000.534 
1000.352 1000.17 999.9913 999.8185 999.6559 999.512 999.4003 
999.3345 999.3175 999.3437 999.4045 999.4956 999.6255 999.8111 
1000.061 1000.369 1000.713 1001.062 1001.383 1001.642 1001.812 
1001.875 1001.83 1001.685 1001.463 1001.185 1000.87 1000.527 
1000.163 999.7877 999.4186 999.08 998.7988 998.599 998.496 
998.4886 998.5654 998.7036 998.8721 999.0502 999.2366 999.4393 
999.6629 999.9026 1000.144 1000.37 1000.576 1000.769 1000.968 
1001.189 1001.718 1002.005 1002.31 1002.625 1002.951 1003.284 
1003.609 1003.904 1004.147 1004.312 1004.387 1004.361 1004.228 
1003.983 1003.632 1003.195 1002.699 1002.181 1001.678 1001.228 
1000.856 1000.571 1000.364 1000.223 1000.135 1000.083 1000.053 
1000.034 1000.022 1000.02 1000.038 1000.08 1000.155 1000.264 
1000.401 1000.554 1000.71 1000.86 1000.991 1001.095 1001.174 
1001.232 1001.279 1001.31 1001.32 1001.296 1001.222 1001.089 
1000.904 1000.685 1000.453 1000.218 999.9913 999.7786 999.5864 
999.4243 999.3055 999.2413 999.2303 999.2611 999.3207 999.4041 
999.5201 999.6884 999.9229 1000.222 1000.566 1000.921 1001.245 
1001.502 1001.662 1001.708 1001.639 1001.471 1001.228 1000.936 
1000.613 1000.273 999.9212 999.5682 999.2272 998.9178 998.6653 
998.4973 998.4338 998.4722 998.5933 998.7685 998.9667 999.17 
999.3793 999.6026 999.8439 1000.099 1000.354 1000.593 1000.81 
1001.014 1001.224 1001.456 1001.983 1002.271 1002.57 1002.877 
1003.196 1003.521 1003.835 1004.109 1004.321 1004.453 1004.495 
1004.44 1004.287 1004.034 1003.691 1003.278 1002.82 1002.349 
1001.895 1001.489 1001.152 1000.889 1000.693 1000.549 1000.443 
1000.363 1000.3 1000.25 1000.214 1000.198 1000.21 1000.259 
1000.349 1000.48 1000.645 1000.832 1001.027 1001.215 1001.377 
1001.499 1001.58 1001.628 1001.654 1001.659 1001.641 1001.585 
1001.478 1001.312 1001.093 1000.839 1000.568 1000.294 1000.031 
999.7858 999.5676 999.3878 999.2599 999.1932 999.1826 999.2115 
999.2625 999.3307 999.4279 999.5739 999.786 1000.067 1000.399 
1000.748 1001.067 1001.315 1001.46 1001.485 1001.392 1001.204 
1000.947 1000.649 1000.331 1000.006 999.6835 999.3701 999.0767 
998.8177 998.6145 998.4947 998.4797 998.5663 998.7299 998.9382 
999.1622 999.3878 999.6153 999.8514 1000.098 1000.351 1000.598 
1000.83 1001.046 1001.256 1001.474 1001.715 1002.237 1002.512 
1002.792 1003.08 1003.38 1003.686 1003.974 1004.215 1004.387 
1004.479 1004.484 1004.401 1004.228 1003.967 1003.634 1003.25 
1002.84 1002.427 1002.033 1001.679 1001.38 1001.141 1000.952 
1000.804 1000.683 1000.578 1000.487 1000.414 1000.362 1000.339 
1000.353 1000.412 1000.522 1000.68 1000.874 1001.095 1001.325 
1001.547 1001.737 1001.881 1001.97 1002.011 1002.015 1001.989 
1001.933 1001.839 1001.696 1001.501 1001.26 1000.986 1000.693 
1000.395 1000.106 999.8372 999.5989 999.4056 999.2716 999.2025 
999.1884 999.2081 999.2435 999.2918 999.3658 999.4856 999.6702 
999.925 1000.234 1000.562 1000.863 1001.093 1001.216 1001.216 
1001.101 1000.897 1000.634 1000.34 1000.037 999.7409 999.4584 
999.1978 998.9679 998.7794 998.6476 998.5939 998.6376 998.7755 
998.9808 999.2199 999.4666 999.71 999.9507 1000.193 1000.438 
1000.677 1000.903 1001.112 1001.314 1001.518 1001.737 1001.977 
1002.479 1002.72 1002.964 1003.216 1003.482 1003.754 1004.003 
1004.201 1004.328 1004.378 1004.35 1004.244 1004.058 1003.797 
1003.476 1003.123 1002.765 1002.418 1002.09 1001.79 1001.529 
1001.31 1001.127 1000.972 1000.835 1000.707 1000.595 1000.507 
1000.449 1000.429 1000.455 1000.534 1000.668 1000.853 1001.077 
1001.326 1001.585 1001.833 1002.047 1002.207 1002.304 1002.342 
1002.328 1002.271 1002.175 1002.039 1001.86 1001.641 1001.389 
1001.11 1000.812 1000.504 1000.202 999.921 999.6733 999.4756 
999.3419 999.2739 999.256 999.2639 999.2792 999.3029 999.3495 
999.4392 999.5914 999.8126 1000.087 1000.381 1000.651 1000.851 
1000.943 1000.916 1000.779 1000.562 1000.299 1000.019 999.7424 
999.4849 999.2549 999.0591 998.9055 998.8029 998.759 998.7865 
998.8983 999.0901 999.336 999.6031 999.8686 1000.125 1000.373 
1000.616 1000.854 1001.078 1001.28 1001.462 1001.638 1001.822 
1002.023 1002.244 1002.712 1002.9 1003.089 1003.287 1003.501 
1003.72 1003.916 1004.061 1004.139 1004.148 1004.09 1003.966 
1003.774 1003.519 1003.22 1002.905 1002.602 1002.32 1002.058 
1001.811 1001.584 1001.383 1001.205 1001.044 1000.89 1000.742 
1000.614 1000.518 1000.464 1000.459 1000.509 1000.617 1000.78 
1000.992 1001.242 1001.515 1001.795 1002.061 1002.288 1002.457 
1002.557 1002.588 1002.558 1002.474 1002.342 1002.168 1001.959 
1001.721 1001.465 1001.193 1000.904 1000.604 1000.306 1000.027 
999.7842 999.5954 999.4711 999.4086 999.3893 999.3864 999.3811 
999.3773 999.3929 999.4491 999.5648 999.7458 999.9763 1000.224 
1000.45 1000.608 1000.663 1000.603 1000.442 1000.214 999.9545 
999.6942 999.4534 999.2462 999.0805 998.9614 998.8957 998.8885 
998.9407 999.0563 999.2404 999.4858 999.768 1000.059 1000.338 
1000.602 1000.852 1001.095 1001.327 1001.539 1001.722 1001.88 
1002.028 1002.18 1002.346 1002.526 1002.952 1003.067 1003.183 
1003.309 1003.452 1003.6 1003.729 1003.813 1003.838 1003.803 
1003.712 1003.567 1003.369 1003.125 1002.856 1002.589 1002.345 
1002.128 1001.926 1001.728 1001.534 1001.351 1001.18 1001.015 
1000.848 1000.685 1000.546 1000.448 1000.405 1000.423 1000.506 
1000.65 1000.845 1001.085 1001.358 1001.65 1001.943 1002.215 
1002.444 1002.611 1002.706 1002.729 1002.686 1002.58 1002.421 
1002.219 1001.988 1001.739 1001.485 1001.228 1000.963 1000.688 
1000.415 1000.159 999.9374 999.7708 999.6655 999.6135 999.5947 
999.5817 999.5568 999.5246 999.5063 999.5257 999.6014 999.7371 
999.9157 1000.108 1000.279 1000.386 1000.395 1000.295 1000.108 
999.8701 999.6185 999.3839 999.1858 999.0371 998.9453 998.9131 
998.9428 999.0338 999.1808 999.3817 999.6348 999.9286 1000.24 
1000.547 1000.836 1001.103 1001.356 1001.599 1001.83 1002.036 
1002.208 1002.349 1002.472 1002.59 1002.71 1002.833 1003.203 
1003.233 1003.264 1003.305 1003.362 1003.425 1003.474 1003.487 
1003.451 1003.366 1003.235 1003.06 1002.848 1002.616 1002.384 
1002.172 1001.992 1001.837 1001.691 1001.537 1001.376 1001.215 
1001.056 1000.89 1000.714 1000.541 1000.396 1000.303 1000.275 
1000.32 1000.436 1000.617 1000.846 1001.113 1001.407 1001.711 
1002.006 1002.273 1002.493 1002.649 1002.735 1002.751 1002.698 
1002.581 1002.408 1002.193 1001.951 1001.701 1001.458 1001.224 
1000.993 1000.764 1000.54 1000.329 1000.147 1000.014 999.934 
999.8954 999.8768 999.8524 999.8063 999.7449 999.6917 999.6727 
999.7062 999.7921 999.9127 1000.042 1000.149 1000.195 1000.148 
1000.005 999.792 999.5488 999.3128 999.1124 998.9641 998.8793 
998.8654 998.9232 999.0475 999.2311 999.4642 999.7397 1000.052 
1000.386 1000.72 1001.037 1001.332 1001.604 1001.86 1002.106 
1002.338 1002.542 1002.709 1002.841 1002.946 1003.033 1003.104 
1003.162 1003.459 1003.401 1003.341 1003.293 1003.258 1003.229 
1003.189 1003.121 1003.013 1002.865 1002.68 1002.465 1002.234 
1002.01 1001.816 1001.663 1001.546 1001.451 1001.355 1001.243 
1001.116 1000.981 1000.838 1000.677 1000.499 1000.323 1000.177 
1000.091 1000.08 1000.15 1000.298 1000.511 1000.771 1001.064 
1001.373 1001.68 1001.968 1002.22 1002.422 1002.561 1002.635 
1002.646 1002.591 1002.474 1002.304 1002.093 1001.856 1001.616 
1001.393 1001.19 1001.007 1000.84 1000.685 1000.543 1000.418 
1000.328 1000.276 1000.249 1000.226 1000.185 1000.114 1000.022 
999.9352 999.8793 999.8694 999.9017 999.9587 1000.018 1000.052 
1000.029 999.9232 999.7384 999.5056 999.2666 999.0562 998.898 
998.8057 998.7882 998.852 998.9949 999.2054 999.4703 999.7773 
1000.115 1000.475 1000.839 1001.19 1001.517 1001.817 1002.093 
1002.352 1002.6 1002.831 1003.033 1003.198 1003.325 1003.416 
1003.476 1003.502 1003.496 1003.702 1003.565 1003.418 1003.281 
1003.156 1003.034 1002.903 1002.745 1002.552 1002.326 1002.073 
1001.809 1001.554 1001.338 1001.179 1001.076 1001.016 1000.974 
1000.924 1000.851 1000.759 1000.654 1000.533 1000.387 1000.217 
1000.045 999.9053 999.8269 999.8307 999.9227 1000.096 1000.335 
1000.62 1000.931 1001.248 1001.551 1001.825 1002.056 1002.234 
1002.352 1002.414 1002.421 1002.371 1002.268 1002.116 1001.923 
1001.706 1001.49 1001.298 1001.139 1001.016 1000.923 1000.852 
1000.792 1000.738 1000.699 1000.674 1000.653 1000.617 1000.551 
1000.449 1000.324 1000.206 1000.117 1000.064 1000.041 1000.031 
1000.014 999.9717 999.8795 999.7201 999.5016 999.2585 999.0328 
998.856 998.7465 998.7138 998.7637 998.9011 999.1212 999.4086 
999.7449 1000.114 1000.503 1000.898 1001.284 1001.649 1001.985 
1002.289 1002.566 1002.823 1003.066 1003.291 1003.49 1003.652 
1003.772 1003.849 1003.883 1003.871 1003.809 1003.914 1003.71 
1003.488 1003.268 1003.056 1002.844 1002.622 1002.372 1002.085 
1001.77 1001.442 1001.125 1000.846 1000.635 1000.503 1000.44 
1000.424 1000.424 1000.412 1000.376 1000.319 1000.246 1000.152 
1000.029 999.8792 999.7232 999.5955 999.5283 999.5445 999.6514 
999.8414 1000.098 1000.398 1000.717 1001.034 1001.327 1001.583 
1001.792 1001.946 1002.045 1002.093 1002.096 1002.057 1001.977 
1001.854 1001.693 1001.51 1001.332 1001.184 1001.082 1001.029 
1001.016 1001.032 1001.058 1001.081 1001.096 1001.096 1001.073 
1001.013 1000.912 1000.774 1000.616 1000.468 1000.346 1000.251 
1000.172 1000.095 1000.006 999.8922 999.7391 999.5369 999.2962 
999.0533 998.8488 998.7109 998.6531 998.6802 998.7952 999.0005 
999.2905 999.6478 1000.049 1000.472 1000.903 1001.325 1001.728 
1002.103 1002.442 1002.744 1003.015 1003.261 1003.489 1003.702 
1003.894 1004.051 1004.162 1004.225 1004.235 1004.187 1004.079 
1004.082 1003.824 1003.538 1003.241 1002.943 1002.644 1002.334 
1001.994 1001.616 1001.214 1000.816 1000.451 1000.15 999.9393 
999.8233 999.787 999.801 999.8314 999.8507 999.8477 999.8238 
999.7806 999.715 999.6223 999.5012 999.3696 999.2613 999.2096 
999.2377 999.3534 999.5502 999.8116 1000.115 1000.434 1000.743 
1001.022 1001.261 1001.451 1001.587 1001.671 1001.708 1001.71 
1001.684 1001.63 1001.542 1001.42 1001.283 1001.155 1001.063 
1001.026 1001.045 1001.112 1001.21 1001.317 1001.412 1001.478 
1001.502 1001.471 1001.383 1001.24 1001.061 1000.87 1000.69 
1000.534 1000.395 1000.261 1000.121 999.9692 999.7975 999.5999 
999.371 999.1225 998.8902 998.7134 998.6161 998.6082 998.6921 
998.8687 999.1381 999.4933 999.9153 1000.376 1000.848 1001.313 
1001.758 1002.175 1002.555 1002.89 1003.18 1003.432 1003.655 
1003.858 1004.051 1004.232 1004.382 1004.486 1004.534 1004.521 
1004.441 1004.293 1004.198 1003.896 1003.554 1003.186 1002.806 
1002.422 1002.027 1001.604 1001.146 1000.674 1000.219 999.8175 
999.4987 999.2827 999.172 999.1482 999.1798 999.2324 999.2781 
999.3034 999.3069 999.2905 999.2533 999.1909 999.1008 998.9972 
998.912 998.8785 998.9189 999.0396 999.2353 999.4929 999.7913 
1000.102 1000.399 1000.663 1000.888 1001.066 1001.193 1001.27 
1001.303 1001.306 1001.29 1001.258 1001.204 1001.126 1001.04 
1000.971 1000.945 1000.975 1001.063 1001.202 1001.373 1001.548 
1001.702 1001.81 1001.853 1001.817 1001.701 1001.52 1001.302 
1001.075 1000.86 1000.663 1000.477 1000.289 1000.094 999.8898 
999.6776 999.4556 999.2205 998.9822 998.7728 998.6289 998.5723 
998.6102 998.7461 998.9804 999.3099 999.7249 1000.205 1000.719 
1001.233 1001.727 1002.19 1002.617 1002.997 1003.322 1003.593 
1003.816 1004.004 1004.174 1004.34 1004.503 1004.645 1004.74 
1004.775 1004.74 1004.629 1004.447 1004.258 1003.919 1003.528 
1003.097 1002.644 1002.181 1001.708 1001.212 1000.691 1000.167 
999.6742 999.2472 998.9148 998.6923 998.5797 998.5583 998.598 
998.6663 998.7335 998.7819 998.8075 998.8136 998.8008 998.7639 
998.7001 998.6218 998.5585 998.5417 998.592 998.714 998.9052 
999.1557 999.4457 999.7455 1000.027 1000.277 1000.493 1000.671 
1000.801 1000.88 1000.914 1000.919 1000.91 1000.893 1000.867 
1000.832 1000.8 1000.793 1000.832 1000.926 1001.076 1001.276 
1001.505 1001.733 1001.93 1002.069 1002.125 1002.085 1001.95 
1001.74 1001.489 1001.228 1000.973 1000.73 1000.495 1000.258 
1000.015 999.7714 999.5364 999.3099 999.0874 998.8773 998.7045 
998.6006 998.5865 998.6688 998.8511 999.1355 999.5164 999.9813 
1000.508 1001.065 1001.612 1002.128 1002.605 1003.036 1003.411 
1003.724 1003.972 1004.161 1004.31 1004.441 1004.574 1004.715 
1004.841 1004.924 1004.941 1004.883 1004.747 1004.535 1004.258 
1003.891 1003.462 1002.981 1002.469 1001.941 1001.404 1000.849 
1000.281 999.7232 999.2087 998.7686 998.4276 998.1991 998.0812 
998.0564 998.0981 998.1751 998.2565 998.3212 998.3641 998.3878 
998.392 998.3726 998.3272 998.2665 998.2177 998.2092 998.2605 
998.3789 998.5651 998.8105 999.0933 999.3825 999.6509 999.8912 
1000.107 1000.293 1000.437 1000.527 1000.568 1000.578 1000.572 
1000.563 1000.556 1000.557 1000.574 1000.624 1000.721 1000.872 
1001.075 1001.323 1001.596 1001.86 1002.085 1002.241 1002.302 
1002.258 1002.11 1001.883 1001.609 1001.318 1001.024 1000.736 
1000.454 1000.174 999.8956 999.6309 999.3903 999.1747 998.9794 
998.8102 998.6849 998.6285 998.6598 998.7861 999.0104 999.3347 
999.7532 1000.253 1000.812 1001.397 1001.97 1002.503 1002.987 
1003.416 1003.781 1004.076 1004.299 1004.458 1004.57 1004.662 
1004.759 1004.868 1004.968 1005.029 1005.026 1004.947 1004.79 
1004.558 1004.195 1003.809 1003.355 1002.844 1002.296 1001.727 
1001.145 1000.549 999.9509 999.3757 998.8538 998.4116 998.0687 
997.8357 997.7117 997.6818 997.7216 997.8001 997.8854 997.9568 
998.0094 998.0433 998.0568 998.0466 998.0106 997.9571 997.9091 
997.8931 997.9326 998.0413 998.2219 998.465 998.7454 999.0295 
999.2921 999.5309 999.7529 999.9548 1000.119 1000.227 1000.282 
1000.298 1000.295 1000.288 1000.291 1000.313 1000.367 1000.462 
1000.608 1000.805 1001.051 1001.335 1001.635 1001.921 1002.159 
1002.319 1002.378 1002.328 1002.172 1001.936 1001.649 1001.336 
1001.011 1000.684 1000.363 1000.052 999.7575 999.4898 999.2577 
999.062 998.8998 998.7752 998.7009 998.6946 998.7721 998.9409 
999.2035 999.5595 1000.004 1000.525 1001.102 1001.703 1002.289 
1002.833 1003.32 1003.74 1004.086 1004.358 1004.558 1004.692 
1004.774 1004.83 1004.888 1004.958 1005.022 1005.052 1005.025 
1004.928 1004.754 1004.509 1004.064 1003.673 1003.213 1002.696 
1002.138 1001.556 1000.955 1000.341 999.7303 999.1518 998.634 
998.1989 997.8608 997.6274 997.4992 997.4629 997.4963 997.5684 
997.6473 997.7147 997.7661 997.8008 997.8157 997.8062 997.7695 
997.71 997.6462 997.6065 997.6221 997.714 997.8864 998.1274 
998.4093 998.6967 998.9653 999.2148 999.4517 999.6723 999.8575 
999.9868 1000.058 1000.085 1000.086 1000.079 1000.081 1000.11 
1000.182 1000.307 1000.486 1000.717 1000.993 1001.299 1001.615 
1001.909 1002.149 1002.307 1002.361 1002.304 1002.145 1001.906 
1001.614 1001.288 1000.941 1000.586 1000.239 999.9139 999.6191 
999.3622 999.1476 998.9741 998.841 998.7546 998.726 998.7669 
998.8885 999.0971 999.3946 999.7785 1000.243 1000.777 1001.361 
1001.964 1002.552 1003.096 1003.576 1003.979 1004.303 1004.549 
1004.727 1004.84 1004.898 1004.926 1004.949 1004.977 1004.999 
1004.992 1004.937 1004.821 1004.636 1004.384 1003.875 1003.492 
1003.046 1002.548 1002.01 1001.442 1000.85 1000.242 999.6384 
999.0705 998.5673 998.1463 997.8181 997.5882 997.4568 997.4125 
997.4335 997.4899 997.5527 997.6053 997.6447 997.6703 997.676 
997.6553 997.6039 997.5236 997.4307 997.3581 997.3433 997.4121 
997.5707 997.8066 998.0919 998.3896 998.6768 998.95 999.2103 
999.4517 999.6562 999.8046 999.8929 999.9308 999.9341 999.9221 
999.9168 999.9418 1000.018 1000.155 1000.352 1000.601 1000.892 
1001.21 1001.532 1001.829 1002.069 1002.223 1002.271 1002.21 
1002.05 1001.813 1001.52 1001.19 1000.833 1000.467 1000.11 
999.7826 999.4954 999.2535 999.0568 998.9017 998.7905 998.7321 
998.7374 998.8167 998.9765 999.2198 999.5471 999.9554 1000.436 
1000.977 1001.56 1002.156 1002.735 1003.267 1003.729 1004.108 
1004.405 1004.625 1004.779 1004.873 1004.916 1004.924 1004.92 
1004.913 1004.894 1004.849 1004.764 1004.629 1004.439 1004.189 
1003.647 1003.29 1002.877 1002.417 1001.92 1001.392 1000.834 
1000.257 999.6821 999.1409 998.6617 998.2603 997.9441 997.7181 
997.5829 997.5272 997.5302 997.5644 997.6027 997.6302 997.6455 
997.6478 997.6287 997.5801 997.4979 997.3842 997.2553 997.1468 
997.0996 997.1418 997.2829 997.5115 997.7999 998.1128 998.4264 
998.7317 999.0215 999.285 999.5062 999.6702 999.772 999.8172 
999.819 999.7983 999.7816 999.7971 999.8679 1000.004 1000.203 
1000.455 1000.75 1001.073 1001.398 1001.698 1001.939 1002.091 
1002.136 1002.071 1001.912 1001.678 1001.389 1001.063 1000.712 
1000.351 999.9986 999.6752 999.3952 999.1639 998.9789 998.8368 
998.7409 998.701 998.7285 998.8325 999.0176 999.2844 999.6331 
1000.06 1000.554 1001.098 1001.673 1002.255 1002.816 1003.325 
1003.76 1004.109 1004.374 1004.564 1004.693 1004.771 1004.805 
1004.804 1004.785 1004.753 1004.702 1004.624 1004.513 1004.367 
1004.179 1003.943 1003.407 1003.093 1002.729 1002.32 1001.879 
1001.408 1000.906 1000.381 999.8537 999.3555 998.9108 998.5329 
998.2292 998.0058 997.8642 997.7943 997.7758 997.7824 997.7879 
997.7795 997.7567 997.7184 997.6566 997.563 997.4355 997.2794 
997.1121 996.9686 996.8906 996.9068 997.0294 997.2495 997.5407 
997.8703 998.2125 998.5508 998.8698 999.1541 999.3898 999.5657 
999.6768 999.7254 999.723 999.6923 999.6621 999.6638 999.7213 
999.8448 1000.033 1000.279 1000.572 1000.895 1001.224 1001.529 
1001.773 1001.927 1001.973 1001.908 1001.75 1001.52 1001.239 
1000.925 1000.59 1000.247 999.9095 999.5948 999.3193 999.0917 
998.9125 998.7796 998.6945 998.665 998.7019 998.8139 999.0068 
999.2828 999.6426 1000.081 1000.582 1001.125 1001.689 1002.251 
1002.785 1003.262 1003.661 1003.972 1004.201 1004.359 1004.463 
1004.526 1004.556 1004.557 1004.536 1004.494 1004.423 1004.326 
1004.202 1004.054 1003.88 1003.668 1003.184 1002.929 1002.627 
1002.281 1001.903 1001.498 1001.064 1000.605 1000.14 999.6969 
999.2959 998.9466 998.6569 998.4338 998.2819 998.1951 998.153 
998.1269 998.0917 998.0364 997.962 997.868 997.7485 997.5971 
997.4146 997.2109 997.0049 996.8298 996.7243 996.7166 996.8214 
997.0319 997.324 997.6671 998.0327 998.3981 998.7415 999.0442 
999.2927 999.4774 999.5934 999.6413 999.6323 999.5907 999.5469 
999.5317 999.5692 999.6703 999.8383 1000.071 1000.356 1000.678 
1001.012 1001.325 1001.577 1001.738 1001.789 1001.73 1001.576 
1001.352 1001.081 1000.782 1000.469 1000.15 999.8339 999.5328 
999.2619 999.0353 998.8591 998.7321 998.6524 998.6246 998.6581 
998.7633 998.9493 999.2225 999.5845 1000.027 1000.529 1001.064 
1001.61 1002.145 1002.643 1003.081 1003.438 1003.707 1003.896 
1004.021 1004.099 1004.147 1004.176 1004.186 1004.174 1004.135 
1004.064 1003.966 1003.847 1003.714 1003.567 1003.394 1003.007 
1002.823 1002.594 1002.319 1002.01 1001.673 1001.31 1000.923 
1000.528 1000.146 999.7946 999.4785 999.2042 998.98 998.8142 
998.7064 998.6367 998.5738 998.4925 998.3823 998.2458 998.086 
997.9003 997.6852 997.4449 997.1926 996.9493 996.7472 996.6193 
996.5914 996.6788 996.8767 997.1637 997.5106 997.8876 998.2688 
998.6294 998.9463 999.2041 999.3936 999.509 999.5508 999.5318 
999.4788 999.4222 999.3902 999.4051 999.4799 999.6216 999.8333 
1000.107 1000.427 1000.765 1001.087 1001.352 1001.525 1001.588 
1001.54 1001.396 1001.181 1000.922 1000.64 1000.348 1000.054 
999.7633 999.4808 999.2184 998.9931 998.8161 998.688 998.6056 
998.5714 998.5949 998.6867 998.8588 999.1219 999.4788 999.9178 
1000.412 1000.931 1001.452 1001.951 1002.406 1002.798 1003.108 
1003.331 1003.478 1003.569 1003.621 1003.654 1003.681 1003.701 
1003.707 1003.685 1003.632 1003.554 1003.463 1003.367 1003.266 
1003.15 1002.894 1002.792 1002.641 1002.444 1002.206 1001.936 
1001.641 1001.324 1000.998 1000.679 1000.379 1000.099 999.842 
999.6175 999.4357 999.3007 999.1962 999.0926 998.9625 998.7939 
998.5906 998.3613 998.1088 997.8326 997.5383 997.241 996.9645 
996.7398 996.5952 996.5514 996.6215 996.8027 997.0759 997.4125 
997.7842 998.166 998.5313 998.8535 999.1134 999.3002 999.4073 
999.4371 999.4056 999.3414 999.2741 999.2284 999.2236 999.274 
999.3901 999.5793 999.838 1000.151 1000.491 1000.821 1001.098 
1001.287 1001.369 1001.341 1001.215 1001.017 1000.773 1000.506 
1000.232 999.9612 999.6958 999.4342 999.1827 998.9575 998.7725 
998.6328 998.5397 998.4962 998.5101 998.59 998.7484 998.9995 
999.3467 999.7759 1000.256 1000.753 1001.24 1001.697 1002.103 
1002.442 1002.7 1002.871 1002.973 1003.027 1003.053 1003.071 
1003.093 1003.124 1003.15 1003.156 1003.136 1003.099 1003.059 
1003.026 1002.996 1002.957 1002.849 1002.833 1002.767 1002.649 
1002.483 1002.278 1002.043 1001.788 1001.523 1001.262 1001.01 
1000.765 1000.528 1000.306 1000.108 999.9422 999.7975 999.6494 
999.4691 999.2431 998.9765 998.6826 998.3699 998.0411 997.7015 
997.3669 997.0631 996.8199 996.6615 996.6034 996.6563 996.8167 
997.0657 997.3767 997.7257 998.0906 998.4444 998.7584 999.0095 
999.1827 999.2723 999.2844 999.2404 999.1685 999.0945 999.0397 
999.0215 999.0544 999.151 999.3203 999.5618 999.8637 1000.201 
1000.534 1000.822 1001.029 1001.136 1001.135 1001.036 1000.86 
1000.635 1000.385 1000.128 999.8763 999.6311 999.3873 999.1439 
998.9139 998.7138 998.5555 998.447 998.3942 998.4016 998.4745 
998.6242 998.8651 999.2015 999.6177 1000.08 1000.55 1001 
1001.409 1001.762 1002.042 1002.24 1002.355 1002.408 1002.424 
1002.425 1002.429 1002.446 1002.484 1002.531 1002.57 1002.596 
1002.616 1002.648 1002.699 1002.762 1002.819 1002.854 1002.93 
1002.949 1002.909 1002.812 1002.668 1002.488 1002.284 1002.068 
1001.851 1001.638 1001.425 1001.209 1000.993 1000.784 1000.59 
1000.405 1000.212 999.9832 999.7064 999.387 999.0398 998.6772 
998.3059 997.9314 997.5679 997.2424 996.9839 996.8127 996.7415 
996.7767 996.9119 997.126 997.3969 997.7081 998.041 998.369 
998.6603 998.8881 999.0365 999.102 999.0953 999.0406 998.9646 
998.8882 998.8293 998.8036 998.8258 998.9088 999.0616 999.2857 
999.574 999.9038 1000.235 1000.529 1000.755 1000.891 1000.924 
1000.857 1000.71 1000.508 1000.277 1000.037 999.7996 999.5671 
999.3331 999.0922 998.8528 998.6346 998.4572 998.3336 998.2714 
998.2742 998.3445 998.4909 998.7253 999.0515 999.4529 999.8929 
1000.332 1000.74 1001.099 1001.393 1001.611 1001.746 1001.804 
1001.81 1001.789 1001.767 1001.758 1001.773 1001.817 1001.885 
1001.962 1002.042 1002.133 1002.248 1002.395 1002.563 1002.726 
1002.884 1003.052 1003.153 1003.185 1003.152 1003.063 1002.931 
1002.77 1002.593 1002.409 1002.223 1002.034 1001.838 1001.632 
1001.422 1001.209 1000.993 1000.76 1000.489 1000.172 999.8127 
999.4261 999.0254 998.6204 998.2183 997.833 997.4911 997.2202 
997.0383 996.9553 996.9728 997.0788 997.2507 997.472 997.7347 
998.025 998.3157 998.5714 998.763 998.8773 998.9156 998.8912 
998.8283 998.7499 998.6732 998.6135 998.5843 998.5989 998.6702 
998.8079 999.015 999.2871 999.6039 999.9301 1000.23 1000.474 
1000.637 1000.705 1000.674 1000.559 1000.382 1000.172 999.948 
999.7225 999.4975 999.2671 999.0244 998.7757 998.5431 998.3519 
998.2174 998.1473 998.1459 998.215 998.3604 998.59 998.9045 
999.2863 999.6967 1000.096 1000.456 1000.759 1000.994 1001.15 
1001.226 1001.235 1001.199 1001.146 1001.102 1001.083 1001.099 
1001.154 1001.245 1001.364 1001.504 1001.67 1001.873 1002.119 
1002.391 1002.657 1002.911 1003.165 1003.341 1003.437 1003.458 
1003.417 1003.328 1003.203 1003.058 1002.899 1002.734 1002.564 
1002.388 1002.2 1001.998 1001.781 1001.547 1001.285 1000.983 
1000.637 1000.252 999.8393 999.412 998.9811 998.5563 998.1541 
997.8015 997.5236 997.3353 997.2426 997.2424 997.3179 997.4462 
997.6149 997.8231 998.0618 998.3047 998.5144 998.6612 998.7357 
998.7443 998.7013 998.6287 998.5466 998.4698 998.4103 998.3779 
998.384 998.4417 998.5624 998.7518 999.0057 999.3069 999.6266 
999.9326 1000.194 1000.383 1000.48 1000.482 1000.398 1000.247 
1000.056 999.8474 999.6331 999.4152 999.1874 998.9427 998.6893 
998.4518 998.256 998.118 998.0453 998.0419 998.1097 998.253 
998.4744 998.7705 999.1215 999.49 999.8387 1000.142 1000.384 
1000.558 1000.659 1000.687 1000.656 1000.587 1000.509 1000.449 
1000.425 1000.447 1000.519 1000.637 1000.798 1000.999 1001.24 
1001.53 1001.867 1002.233 1002.592 1002.91 1003.237 1003.476 
1003.624 1003.691 1003.692 1003.639 1003.549 1003.432 1003.298 
1003.152 1003.002 1002.85 1002.688 1002.506 1002.298 1002.059 
1001.783 1001.464 1001.102 1000.702 1000.275 999.8336 999.386 
998.9459 998.5338 998.1771 997.8984 997.709 997.6105 997.595 
997.6426 997.73 997.8488 998.0014 998.1801 998.3618 998.514 
998.6088 998.6387 998.613 998.5465 998.4589 998.3697 998.2919 
998.2314 998.1938 998.1884 998.2284 998.3292 998.4991 998.7349 
999.0215 999.3348 999.6454 999.9205 1000.128 1000.248 1000.277 
1000.22 1000.094 999.9221 999.7269 999.5241 999.3159 999.0933 
998.8516 998.6019 998.3699 998.18 998.0482 997.9811 997.9812 
998.05 998.1887 998.3947 998.6603 998.9658 999.2779 999.5636 
999.8009 999.978 1000.093 1000.146 1000.136 1000.076 999.9857 
999.8931 999.8265 999.8071 999.843 999.9348 1000.081 1000.28 
1000.534 1000.844 1001.21 1001.627 1002.071 1002.511 1002.855 
1003.238 1003.525 1003.714 1003.819 1003.856 1003.838 1003.78 
1003.696 1003.589 1003.468 1003.343 1003.221 1003.093 1002.941 
1002.752 1002.521 1002.243 1001.92 1001.553 1001.149 1000.72 
1000.275 999.8239 999.3823 998.9718 998.6191 998.3461 998.1626 
998.0657 998.0412 998.0662 998.1184 998.1926 998.2903 998.4022 
998.5103 998.5916 998.6244 998.6019 998.5341 998.437 998.3291 
998.2298 998.1494 998.0866 998.0414 998.022 998.0425 998.1203 
998.2675 998.4833 998.7548 999.0599 999.3703 999.652 999.8708 
1000.005 1000.052 1000.019 999.9171 999.7648 999.5851 999.3954 
999.1985 998.9868 998.7573 998.522 998.305 998.13 998.0137 
997.9619 997.9749 998.0495 998.1823 998.3658 998.5888 998.8346 
999.0769 999.2889 999.4528 999.562 999.6199 999.6295 999.59 
999.5103 999.41 999.3157 999.2556 999.2501 999.3046 999.4172 
999.5876 999.8195 1000.117 1000.481 1000.907 1001.386 1001.893 
1002.395 1002.732 1003.15 1003.469 1003.689 1003.822 1003.888 
1003.903 1003.883 1003.835 1003.765 1003.678 1003.589 1003.505 
1003.415 1003.298 1003.137 1002.92 1002.649 1002.329 1001.966 
1001.568 1001.146 1000.709 1000.27 999.8433 999.4492 999.1129 
998.8564 998.6887 998.6019 998.5768 998.5875 998.6132 998.6484 
998.6915 998.7321 998.7571 998.7543 998.7112 998.6252 998.507 
998.3735 998.2434 998.1329 998.0479 997.9817 997.929 997.8969 
997.8982 997.95 998.0682 998.2579 998.5098 998.8023 999.1062 
999.387 999.6091 999.7506 999.8098 999.7944 999.7134 999.5833 
999.4241 999.2501 999.0668 998.8722 998.6647 998.4543 998.2617 
998.1104 998.0181 997.9916 998.0269 998.1135 998.2421 998.3994 
998.572 998.7488 998.914 999.0461 999.1322 999.1709 999.1705 
999.1377 999.0723 998.9811 998.8812 998.7955 998.7504 998.7636 
998.8381 998.9716 999.1644 999.4233 999.7529 1000.153 1000.619 
1001.14 1001.691 1002.234 1002.537 1002.969 1003.303 1003.54 