SPECGRID
100 100 1 1 F /

GRIDUNIT
 'METRES' 'MAP' /

DX
10000*10 
/

DY
10000*10 
/

DZ
10000*1 
/

TOPS
10000*1000 
/

